# vtk DataFile Version 3.0
Monodomain FDM
ASCII
DATASET POLYDATA
POINTS 500 float
0 0 0
0.01 0 0
0.02 0 0
0.03 0 0
0.04 0 0
0.05 0 0
0.06 0 0
0.07 0 0
0.08 0 0
0.09 0 0
0.1 0 0
0.11 0 0
0.12 0 0
0.13 0 0
0.14 0 0
0.15 0 0
0.16 0 0
0.17 0 0
0.18 0 0
0.19 0 0
0.2 0 0
0.21 0 0
0.22 0 0
0.23 0 0
0.24 0 0
0.25 0 0
0.26 0 0
0.27 0 0
0.28 0 0
0.29 0 0
0.3 0 0
0.31 0 0
0.32 0 0
0.33 0 0
0.34 0 0
0.35 0 0
0.36 0 0
0.37 0 0
0.38 0 0
0.39 0 0
0.4 0 0
0.41 0 0
0.42 0 0
0.43 0 0
0.44 0 0
0.45 0 0
0.46 0 0
0.47 0 0
0.48 0 0
0.49 0 0
0.5 0 0
0.51 0 0
0.52 0 0
0.53 0 0
0.54 0 0
0.55 0 0
0.56 0 0
0.57 0 0
0.58 0 0
0.59 0 0
0.6 0 0
0.61 0 0
0.62 0 0
0.63 0 0
0.64 0 0
0.65 0 0
0.66 0 0
0.67 0 0
0.68 0 0
0.69 0 0
0.7 0 0
0.71 0 0
0.72 0 0
0.73 0 0
0.74 0 0
0.75 0 0
0.76 0 0
0.77 0 0
0.78 0 0
0.79 0 0
0.8 0 0
0.81 0 0
0.82 0 0
0.83 0 0
0.84 0 0
0.85 0 0
0.86 0 0
0.87 0 0
0.88 0 0
0.89 0 0
0.9 0 0
0.91 0 0
0.92 0 0
0.93 0 0
0.94 0 0
0.95 0 0
0.96 0 0
0.97 0 0
0.98 0 0
0.99 0 0
1 0 0
1.01 0 0
1.02 0 0
1.03 0 0
1.04 0 0
1.05 0 0
1.06 0 0
1.07 0 0
1.08 0 0
1.09 0 0
1.1 0 0
1.11 0 0
1.12 0 0
1.13 0 0
1.14 0 0
1.15 0 0
1.16 0 0
1.17 0 0
1.18 0 0
1.19 0 0
1.2 0 0
1.21 0 0
1.22 0 0
1.23 0 0
1.24 0 0
1.25 0 0
1.26 0 0
1.27 0 0
1.28 0 0
1.29 0 0
1.3 0 0
1.31 0 0
1.32 0 0
1.33 0 0
1.34 0 0
1.35 0 0
1.36 0 0
1.37 0 0
1.38 0 0
1.39 0 0
1.4 0 0
1.41 0 0
1.42 0 0
1.43 0 0
1.44 0 0
1.45 0 0
1.46 0 0
1.47 0 0
1.48 0 0
1.49 0 0
1.5 0 0
1.51 0 0
1.52 0 0
1.53 0 0
1.54 0 0
1.55 0 0
1.56 0 0
1.57 0 0
1.58 0 0
1.59 0 0
1.6 0 0
1.61 0 0
1.62 0 0
1.63 0 0
1.64 0 0
1.65 0 0
1.66 0 0
1.67 0 0
1.68 0 0
1.69 0 0
1.7 0 0
1.71 0 0
1.72 0 0
1.73 0 0
1.74 0 0
1.75 0 0
1.76 0 0
1.77 0 0
1.78 0 0
1.79 0 0
1.8 0 0
1.81 0 0
1.82 0 0
1.83 0 0
1.84 0 0
1.85 0 0
1.86 0 0
1.87 0 0
1.88 0 0
1.89 0 0
1.9 0 0
1.91 0 0
1.92 0 0
1.93 0 0
1.94 0 0
1.95 0 0
1.96 0 0
1.97 0 0
1.98 0 0
1.99 0 0
2 0 0
2.01 0 0
2.02 0 0
2.03 0 0
2.04 0 0
2.05 0 0
2.06 0 0
2.07 0 0
2.08 0 0
2.09 0 0
2.1 0 0
2.11 0 0
2.12 0 0
2.13 0 0
2.14 0 0
2.15 0 0
2.16 0 0
2.17 0 0
2.18 0 0
2.19 0 0
2.2 0 0
2.21 0 0
2.22 0 0
2.23 0 0
2.24 0 0
2.25 0 0
2.26 0 0
2.27 0 0
2.28 0 0
2.29 0 0
2.3 0 0
2.31 0 0
2.32 0 0
2.33 0 0
2.34 0 0
2.35 0 0
2.36 0 0
2.37 0 0
2.38 0 0
2.39 0 0
2.4 0 0
2.41 0 0
2.42 0 0
2.43 0 0
2.44 0 0
2.45 0 0
2.46 0 0
2.47 0 0
2.48 0 0
2.49 0 0
2.5 0 0
2.51 0 0
2.52 0 0
2.53 0 0
2.54 0 0
2.55 0 0
2.56 0 0
2.57 0 0
2.58 0 0
2.59 0 0
2.6 0 0
2.61 0 0
2.62 0 0
2.63 0 0
2.64 0 0
2.65 0 0
2.66 0 0
2.67 0 0
2.68 0 0
2.69 0 0
2.7 0 0
2.71 0 0
2.72 0 0
2.73 0 0
2.74 0 0
2.75 0 0
2.76 0 0
2.77 0 0
2.78 0 0
2.79 0 0
2.8 0 0
2.81 0 0
2.82 0 0
2.83 0 0
2.84 0 0
2.85 0 0
2.86 0 0
2.87 0 0
2.88 0 0
2.89 0 0
2.9 0 0
2.91 0 0
2.92 0 0
2.93 0 0
2.94 0 0
2.95 0 0
2.96 0 0
2.97 0 0
2.98 0 0
2.99 0 0
3 0 0
3.01 0 0
3.02 0 0
3.03 0 0
3.04 0 0
3.05 0 0
3.06 0 0
3.07 0 0
3.08 0 0
3.09 0 0
3.1 0 0
3.11 0 0
3.12 0 0
3.13 0 0
3.14 0 0
3.15 0 0
3.16 0 0
3.17 0 0
3.18 0 0
3.19 0 0
3.2 0 0
3.21 0 0
3.22 0 0
3.23 0 0
3.24 0 0
3.25 0 0
3.26 0 0
3.27 0 0
3.28 0 0
3.29 0 0
3.3 0 0
3.31 0 0
3.32 0 0
3.33 0 0
3.34 0 0
3.35 0 0
3.36 0 0
3.37 0 0
3.38 0 0
3.39 0 0
3.4 0 0
3.41 0 0
3.42 0 0
3.43 0 0
3.44 0 0
3.45 0 0
3.46 0 0
3.47 0 0
3.48 0 0
3.49 0 0
3.5 0 0
3.51 0 0
3.52 0 0
3.53 0 0
3.54 0 0
3.55 0 0
3.56 0 0
3.57 0 0
3.58 0 0
3.59 0 0
3.6 0 0
3.61 0 0
3.62 0 0
3.63 0 0
3.64 0 0
3.65 0 0
3.66 0 0
3.67 0 0
3.68 0 0
3.69 0 0
3.7 0 0
3.71 0 0
3.72 0 0
3.73 0 0
3.74 0 0
3.75 0 0
3.76 0 0
3.77 0 0
3.78 0 0
3.79 0 0
3.8 0 0
3.81 0 0
3.82 0 0
3.83 0 0
3.84 0 0
3.85 0 0
3.86 0 0
3.87 0 0
3.88 0 0
3.89 0 0
3.9 0 0
3.91 0 0
3.92 0 0
3.93 0 0
3.94 0 0
3.95 0 0
3.96 0 0
3.97 0 0
3.98 0 0
3.99 0 0
4 0 0
4.01 0 0
4.02 0 0
4.03 0 0
4.04 0 0
4.05 0 0
4.06 0 0
4.07 0 0
4.08 0 0
4.09 0 0
4.1 0 0
4.11 0 0
4.12 0 0
4.13 0 0
4.14 0 0
4.15 0 0
4.16 0 0
4.17 0 0
4.18 0 0
4.19 0 0
4.2 0 0
4.21 0 0
4.22 0 0
4.23 0 0
4.24 0 0
4.25 0 0
4.26 0 0
4.27 0 0
4.28 0 0
4.29 0 0
4.3 0 0
4.31 0 0
4.32 0 0
4.33 0 0
4.34 0 0
4.35 0 0
4.36 0 0
4.37 0 0
4.38 0 0
4.39 0 0
4.4 0 0
4.41 0 0
4.42 0 0
4.43 0 0
4.44 0 0
4.45 0 0
4.46 0 0
4.47 0 0
4.48 0 0
4.49 0 0
4.5 0 0
4.51 0 0
4.52 0 0
4.53 0 0
4.54 0 0
4.55 0 0
4.56 0 0
4.57 0 0
4.58 0 0
4.59 0 0
4.6 0 0
4.61 0 0
4.62 0 0
4.63 0 0
4.64 0 0
4.65 0 0
4.66 0 0
4.67 0 0
4.68 0 0
4.69 0 0
4.7 0 0
4.71 0 0
4.72 0 0
4.73 0 0
4.74 0 0
4.75 0 0
4.76 0 0
4.77 0 0
4.78 0 0
4.79 0 0
4.8 0 0
4.81 0 0
4.82 0 0
4.83 0 0
4.84 0 0
4.85 0 0
4.86 0 0
4.87 0 0
4.88 0 0
4.89 0 0
4.9 0 0
4.91 0 0
4.92 0 0
4.93 0 0
4.94 0 0
4.95 0 0
4.96 0 0
4.97 0 0
4.98 0 0
4.99 0 0
LINES 499 1497
2 0 1
2 1 2
2 2 3
2 3 4
2 4 5
2 5 6
2 6 7
2 7 8
2 8 9
2 9 10
2 10 11
2 11 12
2 12 13
2 13 14
2 14 15
2 15 16
2 16 17
2 17 18
2 18 19
2 19 20
2 20 21
2 21 22
2 22 23
2 23 24
2 24 25
2 25 26
2 26 27
2 27 28
2 28 29
2 29 30
2 30 31
2 31 32
2 32 33
2 33 34
2 34 35
2 35 36
2 36 37
2 37 38
2 38 39
2 39 40
2 40 41
2 41 42
2 42 43
2 43 44
2 44 45
2 45 46
2 46 47
2 47 48
2 48 49
2 49 50
2 50 51
2 51 52
2 52 53
2 53 54
2 54 55
2 55 56
2 56 57
2 57 58
2 58 59
2 59 60
2 60 61
2 61 62
2 62 63
2 63 64
2 64 65
2 65 66
2 66 67
2 67 68
2 68 69
2 69 70
2 70 71
2 71 72
2 72 73
2 73 74
2 74 75
2 75 76
2 76 77
2 77 78
2 78 79
2 79 80
2 80 81
2 81 82
2 82 83
2 83 84
2 84 85
2 85 86
2 86 87
2 87 88
2 88 89
2 89 90
2 90 91
2 91 92
2 92 93
2 93 94
2 94 95
2 95 96
2 96 97
2 97 98
2 98 99
2 99 100
2 100 101
2 101 102
2 102 103
2 103 104
2 104 105
2 105 106
2 106 107
2 107 108
2 108 109
2 109 110
2 110 111
2 111 112
2 112 113
2 113 114
2 114 115
2 115 116
2 116 117
2 117 118
2 118 119
2 119 120
2 120 121
2 121 122
2 122 123
2 123 124
2 124 125
2 125 126
2 126 127
2 127 128
2 128 129
2 129 130
2 130 131
2 131 132
2 132 133
2 133 134
2 134 135
2 135 136
2 136 137
2 137 138
2 138 139
2 139 140
2 140 141
2 141 142
2 142 143
2 143 144
2 144 145
2 145 146
2 146 147
2 147 148
2 148 149
2 149 150
2 150 151
2 151 152
2 152 153
2 153 154
2 154 155
2 155 156
2 156 157
2 157 158
2 158 159
2 159 160
2 160 161
2 161 162
2 162 163
2 163 164
2 164 165
2 165 166
2 166 167
2 167 168
2 168 169
2 169 170
2 170 171
2 171 172
2 172 173
2 173 174
2 174 175
2 175 176
2 176 177
2 177 178
2 178 179
2 179 180
2 180 181
2 181 182
2 182 183
2 183 184
2 184 185
2 185 186
2 186 187
2 187 188
2 188 189
2 189 190
2 190 191
2 191 192
2 192 193
2 193 194
2 194 195
2 195 196
2 196 197
2 197 198
2 198 199
2 199 200
2 200 201
2 201 202
2 202 203
2 203 204
2 204 205
2 205 206
2 206 207
2 207 208
2 208 209
2 209 210
2 210 211
2 211 212
2 212 213
2 213 214
2 214 215
2 215 216
2 216 217
2 217 218
2 218 219
2 219 220
2 220 221
2 221 222
2 222 223
2 223 224
2 224 225
2 225 226
2 226 227
2 227 228
2 228 229
2 229 230
2 230 231
2 231 232
2 232 233
2 233 234
2 234 235
2 235 236
2 236 237
2 237 238
2 238 239
2 239 240
2 240 241
2 241 242
2 242 243
2 243 244
2 244 245
2 245 246
2 246 247
2 247 248
2 248 249
2 249 250
2 250 251
2 251 252
2 252 253
2 253 254
2 254 255
2 255 256
2 256 257
2 257 258
2 258 259
2 259 260
2 260 261
2 261 262
2 262 263
2 263 264
2 264 265
2 265 266
2 266 267
2 267 268
2 268 269
2 269 270
2 270 271
2 271 272
2 272 273
2 273 274
2 274 275
2 275 276
2 276 277
2 277 278
2 278 279
2 279 280
2 280 281
2 281 282
2 282 283
2 283 284
2 284 285
2 285 286
2 286 287
2 287 288
2 288 289
2 289 290
2 290 291
2 291 292
2 292 293
2 293 294
2 294 295
2 295 296
2 296 297
2 297 298
2 298 299
2 299 300
2 300 301
2 301 302
2 302 303
2 303 304
2 304 305
2 305 306
2 306 307
2 307 308
2 308 309
2 309 310
2 310 311
2 311 312
2 312 313
2 313 314
2 314 315
2 315 316
2 316 317
2 317 318
2 318 319
2 319 320
2 320 321
2 321 322
2 322 323
2 323 324
2 324 325
2 325 326
2 326 327
2 327 328
2 328 329
2 329 330
2 330 331
2 331 332
2 332 333
2 333 334
2 334 335
2 335 336
2 336 337
2 337 338
2 338 339
2 339 340
2 340 341
2 341 342
2 342 343
2 343 344
2 344 345
2 345 346
2 346 347
2 347 348
2 348 349
2 349 350
2 350 351
2 351 352
2 352 353
2 353 354
2 354 355
2 355 356
2 356 357
2 357 358
2 358 359
2 359 360
2 360 361
2 361 362
2 362 363
2 363 364
2 364 365
2 365 366
2 366 367
2 367 368
2 368 369
2 369 370
2 370 371
2 371 372
2 372 373
2 373 374
2 374 375
2 375 376
2 376 377
2 377 378
2 378 379
2 379 380
2 380 381
2 381 382
2 382 383
2 383 384
2 384 385
2 385 386
2 386 387
2 387 388
2 388 389
2 389 390
2 390 391
2 391 392
2 392 393
2 393 394
2 394 395
2 395 396
2 396 397
2 397 398
2 398 399
2 399 400
2 400 401
2 401 402
2 402 403
2 403 404
2 404 405
2 405 406
2 406 407
2 407 408
2 408 409
2 409 410
2 410 411
2 411 412
2 412 413
2 413 414
2 414 415
2 415 416
2 416 417
2 417 418
2 418 419
2 419 420
2 420 421
2 421 422
2 422 423
2 423 424
2 424 425
2 425 426
2 426 427
2 427 428
2 428 429
2 429 430
2 430 431
2 431 432
2 432 433
2 433 434
2 434 435
2 435 436
2 436 437
2 437 438
2 438 439
2 439 440
2 440 441
2 441 442
2 442 443
2 443 444
2 444 445
2 445 446
2 446 447
2 447 448
2 448 449
2 449 450
2 450 451
2 451 452
2 452 453
2 453 454
2 454 455
2 455 456
2 456 457
2 457 458
2 458 459
2 459 460
2 460 461
2 461 462
2 462 463
2 463 464
2 464 465
2 465 466
2 466 467
2 467 468
2 468 469
2 469 470
2 470 471
2 471 472
2 472 473
2 473 474
2 474 475
2 475 476
2 476 477
2 477 478
2 478 479
2 479 480
2 480 481
2 481 482
2 482 483
2 483 484
2 484 485
2 485 486
2 486 487
2 487 488
2 488 489
2 489 490
2 490 491
2 491 492
2 492 493
2 493 494
2 494 495
2 495 496
2 496 497
2 497 498
2 498 499
POINT_DATA 500
SCALARS vm float 1
LOOKUP_TABLE default
40.1942
40.1953
40.1974
40.2006
40.2048
40.21
40.2159
40.2223
40.2287
40.2338
40.2353
40.2292
40.2075
40.1571
40.0562
39.8729
39.5669
39.1031
38.4817
37.7806
37.1747
36.8655
36.8718
37.0265
36.9714
35.9389
31.4042
12.3568
-33.3329
-57.9021
-68.5449
-73.005
-74.8436
-75.5767
-75.8403
-75.9012
-75.8722
-75.8017
-75.711
-75.6095
-75.5016
-75.3894
-75.2738
-75.1553
-75.0341
-74.9103
-74.784
-74.6553
-74.5241
-74.3906
-74.2547
-74.1165
-73.9761
-73.8334
-73.6886
-73.5417
-73.3927
-73.2417
-73.0888
-72.9339
-72.7773
-72.6188
-72.4587
-72.2969
-72.1336
-71.9688
-71.8025
-71.6349
-71.466
-71.2959
-71.1246
-70.9523
-70.7789
-70.6046
-70.4294
-70.2534
-70.0767
-69.8994
-69.7214
-69.5429
-69.364
-69.1846
-69.005
-68.825
-68.6449
-68.4646
-68.2842
-68.1038
-67.9235
-67.7432
-67.5631
-67.3832
-67.2036
-67.0243
-66.8454
-66.6669
-66.4888
-66.3114
-66.1345
-65.9582
-65.7827
-65.6079
-65.4338
-65.2606
-65.0883
-64.917
-64.7466
-64.5772
-64.4089
-64.2418
-64.0758
-63.911
-63.7475
-63.5853
-63.4245
-63.265
-63.107
-62.9505
-62.7955
-62.6421
-62.4902
-62.3401
-62.1917
-62.045
-61.9
-61.7569
-61.6157
-61.4764
-61.339
-61.2036
-61.0703
-60.939
-60.8097
-60.6827
-60.5578
-60.435
-60.3146
-60.1964
-60.0804
-59.9668
-59.8556
-59.7468
-59.6403
-59.5363
-59.4347
-59.3356
-59.239
-59.1449
-59.0534
-58.9643
-58.8779
-58.794
-58.7126
-58.6338
-58.5577
-58.484
-58.413
-58.3445
-58.2786
-58.2153
-58.1545
-58.0962
-58.0405
-57.9872
-57.9365
-57.8881
-57.8423
-57.7988
-57.7576
-57.7188
-57.6823
-57.648
-57.6159
-57.586
-57.5582
-57.5325
-57.5088
-57.487
-57.4671
-57.4491
-57.4328
-57.4182
-57.4053
-57.3939
-57.384
-57.3755
-57.3684
-57.3626
-57.3579
-57.3544
-57.3518
-57.3502
-57.3495
-57.3495
-57.3502
-57.3515
-57.3533
-57.3555
-57.358
-57.3608
-57.3636
-57.3665
-57.3694
-57.3721
-57.3745
-57.3766
-57.3782
-57.3793
-57.3798
-57.3796
-57.3785
-57.3765
-57.3735
-57.3694
-57.364
-57.3574
-57.3495
-57.34
-57.329
-57.3163
-57.3019
-57.2857
-57.2675
-57.2474
-57.2251
-57.2007
-57.1741
-57.1452
-57.1138
-57.08
-57.0436
-57.0047
-56.963
-56.9185
-56.8713
-56.8211
-56.768
-56.7119
-56.6527
-56.5903
-56.5248
-56.456
-56.3839
-56.3084
-56.2296
-56.1473
-56.0615
-55.9722
-55.8793
-55.7827
-55.6826
-55.5787
-55.4711
-55.3598
-55.2447
-55.1257
-55.003
-54.8763
-54.7458
-54.6114
-54.4731
-54.3309
-54.1847
-54.0345
-53.8804
-53.7223
-53.5603
-53.3942
-53.2242
-53.0502
-52.8722
-52.6902
-52.5042
-52.3143
-52.1204
-51.9226
-51.7208
-51.5152
-51.3056
-51.0922
-50.8749
-50.6538
-50.429
-50.2003
-49.968
-49.7319
-49.4922
-49.2489
-49.002
-48.7516
-48.4978
-48.2405
-47.9799
-47.716
-47.4488
-47.1786
-46.9052
-46.6288
-46.3495
-46.0673
-45.7824
-45.4948
-45.2047
-44.9121
-44.6171
-44.3198
-44.0204
-43.719
-43.4156
-43.1105
-42.8036
-42.4953
-42.1855
-41.8745
-41.5623
-41.2491
-40.9351
-40.6204
-40.3051
-39.9894
-39.6735
-39.3575
-39.0415
-38.7257
-38.4103
-38.0954
-37.7811
-37.4676
-37.1551
-36.8437
-36.5335
-36.2246
-35.9173
-35.6116
-35.3077
-35.0056
-34.7056
-34.4077
-34.112
-33.8186
-33.5277
-33.2392
-32.9534
-32.6702
-32.3897
-32.1121
-31.8374
-31.5655
-31.2967
-31.0308
-30.768
-30.5083
-30.2517
-29.9981
-29.7478
-29.5005
-29.2564
-29.0155
-28.7776
-28.5429
-28.3113
-28.0828
-27.8573
-27.6349
-27.4155
-27.1991
-26.9857
-26.7751
-26.5674
-26.3625
-26.1604
-25.9611
-25.7644
-25.5704
-25.379
-25.1901
-25.0037
-24.8198
-24.6382
-24.459
-24.2821
-24.1074
-23.9349
-23.7645
-23.5961
-23.4298
-23.2654
-23.103
-22.9424
-22.7836
-22.6266
-22.4712
-22.3175
-22.1654
-22.0148
-21.8657
-21.718
-21.5718
-21.4268
-21.2831
-21.1407
-20.9994
-20.8593
-20.7203
-20.5823
-20.4452
-20.3091
-20.1739
-20.0396
-19.906
-19.7731
-19.6409
-19.5094
-19.3784
-19.248
-19.1181
-18.9886
-18.8594
-18.7306
-18.6021
-18.4738
-18.3456
-18.2176
-18.0896
-17.9615
-17.8334
-17.7052
-17.5768
-17.4481
-17.3191
-17.1897
-17.0598
-16.9293
-16.7982
-16.6665
-16.5339
-16.4004
-16.266
-16.1305
-15.9938
-15.8558
-15.7164
-15.5756
-15.4331
-15.2888
-15.1426
-14.9944
-14.844
-14.6912
-14.5358
-14.3777
-14.2166
-14.0524
-13.8848
-13.7135
-13.5384
-13.359
-13.1752
-12.9865
-12.7927
-12.5932
-12.3878
-12.176
-11.9572
-11.731
-11.4968
-11.2539
-11.0017
-10.7394
-10.4663
-10.1815
-9.88397
-9.57272
-9.2466
-8.90437
-8.54469
-8.16607
-7.76692
-7.34552
-6.9
-6.4284
-5.92867
-5.39869
-4.83641
-4.2399
-3.60758
-2.93843
-2.23232
-1.49049
-0.716027
0.0854973
0.905356
1.73105
2.5458
3.32835
4.05316
4.69118
5.21121
5.58213
5.77636
